 variables= "x","y","fpcb"
 zone i=          20  datapacking=point
   40000000.0000000        150000.000000000       0.000000000000000E+000
   39907837.1917918        151980.569337677       0.000000000000000E+000
   39891261.3943873        146428.858622116       0.000000000000000E+000
   39941834.4255348        147037.388626289       0.000000000000000E+000
   40057505.7632283        151074.852668904       0.000000000000000E+000
   40107783.6308610        153943.543438152       0.000000000000000E+000
   39898431.2503358        147924.039056670       0.000000000000000E+000
   39927708.6092670        150429.688662272       0.000000000000000E+000
   40017543.3279895        147619.452242440       0.000000000000000E+000
   39979134.5817287        153186.470469774       0.000000000000000E+000
   40106494.0711865        148377.606637594       0.000000000000000E+000
   40001643.9159855        145803.179134666       0.000000000000000E+000
   40029295.9756467        152242.242923199       0.000000000000000E+000
   39947989.0182085        154271.547148498       0.000000000000000E+000
   40083007.9823893        151261.346068682       0.000000000000000E+000
   39957265.2808524        149232.850086680       0.000000000000000E+000
   40039680.5509135        146879.828250459       0.000000000000000E+000
   40052071.8417133        149904.984800155       0.000000000000000E+000
   40080917.3673870        152711.115271044       0.000000000000000E+000
   39986614.7359915        149661.728948043       0.000000000000000E+000
