 variables= "x","y","f"
 zone i=          20  datapacking=point
   40000000.0000000        150000.000000000        131812.243285286     
   39907837.1917918        151980.569337677        131812.243285286     
   39891261.3943873        146428.858622116        131812.243285286     
   39941834.4255348        147037.388626289        131812.243285286     
   40057505.7632283        151074.852668904        131812.243285286     
   40107783.6308610        153943.543438152        131812.243285286     
   39898431.2503358        147924.039056670        131812.243285286     
   39927708.6092670        150429.688662272        131812.243285286     
   40017543.3279895        147619.452242440        131812.243285286     
   39979134.5817287        153186.470469774        131812.243285286     
   40106494.0711865        148377.606637594        131812.243285286     
   40001643.9159855        145803.179134666        131812.243285286     
   40029295.9756467        152242.242923199        131812.243285286     
   39947989.0182085        154271.547148498        131812.243285286     
   40083007.9823893        151261.346068682        131812.243285286     
   39957265.2808524        149232.850086680        131812.243285286     
   40039680.5509135        146879.828250459        131812.243285286     
   40052071.8417133        149904.984800155        131812.243285286     
   40080917.3673870        152711.115271044        131812.243285286     
   39986614.7359915        149661.728948043        131812.243285286     
